LAMMPS data file 

18360 atoms
1 atom types

-2.8525600000000000e+00 2.8525600000000000e+00 xlo xhi
-1.1118199920000001e+02 1.1118199920000001e+02 ylo yhi
-1.2579350280000000e+02 1.2579350280000000e+02 zlo zhi

Masses

1 26.9815

Atoms # atomic

2363 1 2.6249885999999999e-04 -1.1115734100000000e+02 -1.1763986970000001e+02 0 0 0
2364 1 -2.8522987999999998e+00 -1.1115734100000000e+02 -1.1763986970000001e+02 0 0 0
2369 1 -1.4260174999999999e+00 -1.0868663030000000e+02 -1.1763986970000001e+02 0 0 0
2370 1 1.4265428000000000e+00 -1.0868663030000000e+02 -1.1763986970000001e+02 0 0 0
2406 1 -1.4260140029328292e+00 -1.1033373168613731e+02 -1.1539189347846678e+02 0 0 0
2407 1 1.4265460057640300e+00 -1.1033373153345588e+02 -1.1539189313561458e+02 0 0 0
2415 1 2.6821523451442798e-04 -1.0786302379616751e+02 -1.1539189332400535e+02 0 0 0
2416 1 -2.8522917996630914e+00 -1.0786302376036552e+02 -1.1539189324410263e+02 0 0 0
2371 1 2.6822089999999999e-04 -1.0621591950000000e+02 -1.1763986970000001e+02 0 0 0
2372 1 -2.8522934000000002e+00 -1.0621591950000000e+02 -1.1763986970000001e+02 0 0 0
2379 1 -1.4260119000000000e+00 -1.0374521640000000e+02 -1.1763986970000001e+02 0 0 0
2380 1 1.4265485000000000e+00 -1.0374521640000000e+02 -1.1763986970000001e+02 0 0 0
2425 1 2.7441267380431852e-04 -1.0292160497649614e+02 -1.1539189475752970e+02 0 0 0
2426 1 -2.8522855463095373e+00 -1.0292160493077141e+02 -1.1539189464925698e+02 0 0 0
2431 1 -1.4260084516048783e+00 -1.0539231593678737e+02 -1.1539189274374131e+02 0 0 0
2432 1 1.4265515523803429e+00 -1.0539231575549093e+02 -1.1539189230360340e+02 0 0 0
2375 1 2.7370452999999999e-04 -1.0127450560000000e+02 -1.1763986970000001e+02 0 0 0
2376 1 -2.8522856000000001e+00 -1.0127450560000000e+02 -1.1763986970000001e+02 0 0 0
2385 1 -1.4260005000000000e+00 -9.8803771999999995e+01 -1.1763986970000001e+02 0 0 0
2386 1 1.4265595000000000e+00 -9.8803771999999995e+01 -1.1763986970000001e+02 0 0 0
2437 1 -1.4260010399825376e+00 -1.0045089061329749e+02 -1.1539189897733030e+02 0 0 0
2438 1 1.4265589536508378e+00 -1.0045089068223182e+02 -1.1539189916082367e+02 0 0 0
2439 1 2.8396250377510422e-04 -9.7980177325285410e+01 -1.1539189500745573e+02 0 0 0
2440 1 -2.8522760749320026e+00 -9.7980177324048327e+01 -1.1539189500628464e+02 0 0 0
2387 1 2.8538704000000001e-04 -9.6333068900000001e+01 -1.1763986970000001e+02 0 0 0
2388 1 -2.8522758000000001e+00 -9.6333068900000001e+01 -1.1763986970000001e+02 0 0 0
2393 1 -1.4259892000000001e+00 -9.3862358200000003e+01 -1.1763989260000000e+02 0 0 0
2394 1 1.4265709000000000e+00 -9.3862358200000003e+01 -1.1763989260000000e+02 0 0 0
2396 1 -2.8522653724461748e+00 -9.3038754338244544e+01 -1.1539191527123975e+02 0 0 0
2397 1 2.9463006145577129e-04 -9.3038754350093996e+01 -1.1539191529788347e+02 0 0 0
2398 1 1.4265691158559013e+00 -9.5509463038788923e+01 -1.1539190262523068e+02 0 0 0
2399 1 -1.4259908861683475e+00 -9.5509463176712231e+01 -1.1539190294100945e+02 0 0 0
2377 1 -2.8522539744609361e+00 -8.8097335629478252e+01 -1.1539192051971979e+02 0 0 0
2378 1 3.0599378149874995e-04 -8.8097335641903314e+01 -1.1539192054675448e+02 0 0 0
2381 1 1.4265801166502090e+00 -9.0568043023767629e+01 -1.1539192072151701e+02 0 0 0
2382 1 -1.4259798842964455e+00 -9.0568043133502442e+01 -1.1539192099268107e+02 0 0 0
2395 1 2.9659271999999998e-04 -9.1391647399999997e+01 -1.1763989260000000e+02 0 0 0
2400 1 -2.8522644000000001e+00 -9.1391647399999997e+01 -1.1763989260000000e+02 0 0 0
2401 1 -1.4259777000000000e+00 -8.8920913799999994e+01 -1.1763989260000000e+02 0 0 0
2402 1 1.4265824000000000e+00 -8.8920913799999994e+01 -1.1763989260000000e+02 0 0 0
4673 1 3.0803679999999998e-04 -8.6450233499999996e+01 -1.1763992310000000e+02 0 0 0
4674 1 -2.8522512000000000e+00 -8.6450233499999996e+01 -1.1763992310000000e+02 0 0 0
4675 1 -1.4259664000000001e+00 -8.3979545599999994e+01 -1.1763992310000000e+02 0 0 0
4676 1 1.4265938000000000e+00 -8.3979545599999994e+01 -1.1763992310000000e+02 0 0 0
4717 1 -1.4259678688962694e+00 -8.5626639810565649e+01 -1.1539193731034503e+02 0 0 0
4718 1 1.4265921337444689e+00 -8.5626639883361179e+01 -1.1539193751474565e+02 0 0 0
2413 1 2.7630864431759484e-04 -1.1115732230298552e+02 -1.1073128889169929e+02 0 0 0
2414 1 -2.8522836876642343e+00 -1.1115732230404460e+02 -1.1073128889009882e+02 0 0 0
2417 1 2.7206381877025674e-04 -1.0951017682632599e+02 -1.1306296634103542e+02 0 0 0
2418 1 -2.8522878737299857e+00 -1.0951017683006856e+02 -1.1306296633268954e+02 0 0 0
2419 1 -1.4260053903472092e+00 -1.0703946645506714e+02 -1.1306296603982602e+02 0 0 0
2420 1 1.4265545951857244e+00 -1.0703946649444234e+02 -1.1306296599026027e+02 0 0 0
2421 1 -1.4260016918565555e+00 -1.0868660845028791e+02 -1.1073128566064702e+02 0 0 0
2422 1 1.4265583071391725e+00 -1.0868660846225644e+02 -1.1073128565951707e+02 0 0 0
2423 1 2.8077773079903539e-04 -1.0621589549479268e+02 -1.1073128514656150e+02 0 0 0
2424 1 -2.8522792193958542e+00 -1.0621589549758048e+02 -1.1073128514638705e+02 0 0 0
2427 1 -1.4259989442976231e+00 -1.0209804319057095e+02 -1.1306296968492556e+02 0 0 0
2428 1 1.4265610394206345e+00 -1.0209804318709624e+02 -1.1306296970478209e+02 0 0 0
2429 1 2.7755282892265255e-04 -1.0456875508866545e+02 -1.1306296680485363e+02 0 0 0
2430 1 -2.8522823863013698e+00 -1.0456875509800909e+02 -1.1306296679274345e+02 0 0 0
2435 1 -1.4259962954577221e+00 -1.0374518289739432e+02 -1.1073128627861782e+02 0 0 0
2436 1 1.4265637039226999e+00 -1.0374518289937528e+02 -1.1073128628866488e+02 0 0 0
2433 1 2.8712293082684025e-04 -1.0127447084956422e+02 -1.1073128836537894e+02 0 0 0
2434 1 -2.8522728778335140e+00 -1.0127447085102601e+02 -1.1073128836698702e+02 0 0 0
2441 1 2.8518001200887849e-04 -9.9627331796492825e+01 -1.1306297155583782e+02 0 0 0
2442 1 -2.8522748404278890e+00 -9.9627331799034394e+01 -1.1306297155566565e+02 0 0 0
2445 1 -1.4259889828208998e+00 -9.8803758623217902e+01 -1.1073129063887262e+02 0 0 0
2446 1 1.4265710169319969e+00 -9.8803758626699292e+01 -1.1073129063170458e+02 0 0 0
2383 1 1.4265799666188625e+00 -9.3862334853841304e+01 -1.1073129951943042e+02 0 0 0
2384 1 -1.4259800333890360e+00 -9.3862334845100946e+01 -1.1073129951855060e+02 0 0 0
2391 1 -2.8522652970931626e+00 -9.4685906182701018e+01 -1.1306297970794334e+02 0 0 0
2392 1 2.9464877997230625e-04 -9.4685906180909953e+01 -1.1306297971089575e+02 0 0 0
2443 1 -1.4259902375439415e+00 -9.7156618263339354e+01 -1.1306297302405022e+02 0 0 0
2444 1 1.4265697619348721e+00 -9.7156618278015571e+01 -1.1306297299043554e+02 0 0 0
2447 1 2.9532183309457274e-04 -9.6333046123445612e+01 -1.1073129387658570e+02 0 0 0
2448 1 -2.8522646752647192e+00 -9.6333046123860626e+01 -1.1073129387642936e+02 0 0 0
2359 1 1.4265901170808684e+00 -8.8920914972414622e+01 -1.1073131069413975e+02 0 0 0
2360 1 -1.4259698823348916e+00 -8.8920914973116524e+01 -1.1073131068627551e+02 0 0 0
2365 1 -2.8522550992365687e+00 -9.1391625002201181e+01 -1.1073130544953172e+02 0 0 0
2366 1 3.0489922915272275e-04 -9.1391625001328507e+01 -1.1073130544963156e+02 0 0 0
2373 1 -2.8522547126615376e+00 -8.9744488929148943e+01 -1.1306299210583708e+02 0 0 0
2374 1 3.0525247143652274e-04 -8.9744488927216182e+01 -1.1306299210853250e+02 0 0 0
2389 1 1.4265798529994616e+00 -9.2215196928798392e+01 -1.1306298796362337e+02 0 0 0
2390 1 -1.4259801422027778e+00 -9.2215196901174053e+01 -1.1306298799445388e+02 0 0 0
2367 1 1.4265909659061631e+00 -8.7273780525465355e+01 -1.1306299692380210e+02 0 0 0
2368 1 -1.4259690290395797e+00 -8.7273780536406335e+01 -1.1306299690092078e+02 0 0 0
4721 1 3.1702764107019167e-04 -8.4803074761946064e+01 -1.1306300855741148e+02 0 0 0
4722 1 -2.8522429895896919e+00 -8.4803074766169317e+01 -1.1306300855125470e+02 0 0 0
4725 1 3.1563042448175428e-04 -8.6450204397670845e+01 -1.1073131802728648e+02 0 0 0
4726 1 -2.8522443699147453e+00 -8.6450204398806420e+01 -1.1073131802716942e+02 0 0 0
4727 1 -1.4259585297800532e+00 -8.3979493967568374e+01 -1.1073132948781725e+02 0 0 0
4728 1 1.4266014700556364e+00 -8.3979493975608392e+01 -1.1073132947616236e+02 0 0 0
2345 1 1.4265702389757888e+00 -1.0703948538831669e+02 -1.0606891109667930e+02 0 0 0
2346 1 -1.4259897611667951e+00 -1.0703948538835336e+02 -1.0606891109675047e+02 0 0 0
2347 1 -2.8522716964275734e+00 -1.0951020054388746e+02 -1.0606891422511640e+02 0 0 0
2348 1 2.8830349653111083e-04 -1.0951020054394267e+02 -1.0606891422505390e+02 0 0 0
2349 1 -2.8522754994713466e+00 -1.0786304733183226e+02 -1.0840008952718432e+02 0 0 0
2350 1 2.8450122375378893e-04 -1.0786304733152869e+02 -1.0840008952753914e+02 0 0 0
2355 1 1.4265625383990792e+00 -1.1033376217063116e+02 -1.0840009284414180e+02 0 0 0
2356 1 -1.4259974616749282e+00 -1.1033376216970792e+02 -1.0840009284524740e+02 0 0 0
2337 1 -2.8522674055265429e+00 -1.0456877095687477e+02 -1.0606891018823386e+02 0 0 0
2338 1 2.9259451672370557e-04 -1.0456877095678371e+02 -1.0606891018839855e+02 0 0 0
2339 1 1.4265753581215677e+00 -1.0209805712728593e+02 -1.0606891083573244e+02 0 0 0
2340 1 -1.4259846417027442e+00 -1.0209805712728645e+02 -1.0606891083585747e+02 0 0 0
2341 1 -1.4259930848480109e+00 -1.0539233338738654e+02 -1.0840008876705551e+02 0 0 0
2342 1 1.4265669151635618e+00 -1.0539233338692053e+02 -1.0840008876800648e+02 0 0 0
2343 1 -2.8522702318618198e+00 -1.0292162014529620e+02 -1.0840008959340209e+02 0 0 0
2344 1 2.8976914118098866e-04 -1.0292162014540395e+02 -1.0840008959316292e+02 0 0 0
2331 1 -2.8522614848030354e+00 -9.9627343718458164e+01 -1.0606891263331173e+02 0 0 0
2332 1 2.9851521563824338e-04 -9.9627343718574394e+01 -1.0606891263318657e+02 0 0 0
2333 1 -2.8522632412267304e+00 -9.7980194714038191e+01 -1.0840009404305211e+02 0 0 0
2334 1 2.9675843090448532e-04 -9.7980194713878134e+01 -1.0840009404323443e+02 0 0 0
2335 1 1.4265730588140184e+00 -1.0045090734787497e+02 -1.0840009143800671e+02 0 0 0
2336 1 -1.4259869416173969e+00 -1.0045090734720779e+02 -1.0840009143872750e+02 0 0 0
2323 1 -2.8522540892320847e+00 -9.4685917666515067e+01 -1.0606891939148136e+02 0 0 0
2324 1 3.0591069117569226e-04 -9.4685917666389798e+01 -1.0606891939167214e+02 0 0 0
2325 1 -2.8522547724869827e+00 -9.3038770581735704e+01 -1.0840010279410431e+02 0 0 0
2326 1 3.0522820342791237e-04 -9.3038770581819918e+01 -1.0840010279396886e+02 0 0 0
2327 1 1.4265808288414976e+00 -9.5509482334571786e+01 -1.0840009776986591e+02 0 0 0
2328 1 -1.4259791709652634e+00 -9.5509482334052890e+01 -1.0840009777047871e+02 0 0 0
2329 1 1.4265820422958444e+00 -9.7156630573947751e+01 -1.0606891544930323e+02 0 0 0
2330 1 -1.4259779579204457e+00 -9.7156630573878900e+01 -1.0606891544947645e+02 0 0 0
2315 1 -2.8522454306544156e+00 -8.9744492151115594e+01 -1.0606893080173968e+02 0 0 0
2316 1 3.1456942069688662e-04 -8.9744492151246803e+01 -1.0606893080157239e+02 0 0 0
2317 1 -2.8522450843037106e+00 -8.8097347217600841e+01 -1.0840011519471987e+02 0 0 0
2318 1 3.1491628142810201e-04 -8.8097347217348201e+01 -1.0840011519503122e+02 0 0 0
2319 1 1.4265899269732705e+00 -9.0568059111762025e+01 -1.0840010851372941e+02 0 0 0
2320 1 -1.4259700733223521e+00 -9.0568059112261722e+01 -1.0840010851283783e+02 0 0 0
2321 1 1.4265900932454252e+00 -9.2215204952899271e+01 -1.0606892450586309e+02 0 0 0
2322 1 -1.4259699065120064e+00 -9.2215204952967767e+01 -1.0606892450586354e+02 0 0 0
2313 1 1.4265993256412384e+00 -8.7273778971564312e+01 -1.0606893876017607e+02 0 0 0
2314 1 -1.4259606746234899e+00 -8.7273778971477952e+01 -1.0606893876039409e+02 0 0 0
4663 1 -2.8522356484133997e+00 -8.4803065434914927e+01 -1.0606894923554827e+02 0 0 0
4664 1 3.2435152550293117e-04 -8.4803065434754430e+01 -1.0606894923579307e+02 0 0 0
4667 1 1.4266001942176598e+00 -8.5626634775729201e+01 -1.0840012433768698e+02 0 0 0
4668 1 -1.4259598055756300e+00 -8.5626634774509228e+01 -1.0840012433918893e+02 0 0 0
2451 1 2.9211845725288541e-04 -1.1115735339050033e+02 -1.0373773741387785e+02 0 0 0
2452 1 -2.8522678815034403e+00 -1.1115735339058274e+02 -1.0373773741376040e+02 0 0 0
2455 1 -1.4259829670560618e+00 -1.1033378956868776e+02 -1.0140655419449382e+02 0 0 0
2456 1 1.4265770330896717e+00 -1.1033378956870365e+02 -1.0140655419447701e+02 0 0 0
2457 1 -1.4259863762382272e+00 -1.0868663764446933e+02 -1.0373773217746088e+02 0 0 0
2458 1 1.4265736236059161e+00 -1.0868663764448735e+02 -1.0373773217747075e+02 0 0 0
2461 1 2.9853343847571062e-04 -1.0786307381898257e+02 -1.0140654974463624e+02 0 0 0
2462 1 -2.8522614665449879e+00 -1.0786307381907156e+02 -1.0140654974451242e+02 0 0 0
2459 1 2.9552860101423830e-04 -1.0621592233381548e+02 -1.0373772936107464e+02 0 0 0
2460 1 -2.8522644714057530e+00 -1.0621592233373252e+02 -1.0373772936119842e+02 0 0 0
2465 1 -1.4259821779147623e+00 -1.0374520755289903e+02 -1.0373772848622696e+02 0 0 0
2466 1 1.4265778222548506e+00 -1.0374520755291095e+02 -1.0373772848621017e+02 0 0 0
2467 1 3.0263249433472533e-04 -1.0292164330058274e+02 -1.0140654661064910e+02 0 0 0
2468 1 -2.8522573675225171e+00 -1.0292164330048244e+02 -1.0140654661079124e+02 0 0 0
2469 1 1.4265804033986824e+00 -1.0539235837097010e+02 -1.0140654730941337e+02 0 0 0
2470 1 -1.4259795964317445e+00 -1.0539235837097975e+02 -1.0140654730939613e+02 0 0 0
2463 1 3.0049146460253766e-04 -1.0127449324177394e+02 -1.0373772912339192e+02 0 0 0
2464 1 -2.8522595085088720e+00 -1.0127449324187948e+02 -1.0373772912324308e+02 0 0 0
2471 1 -1.4259764796036229e+00 -9.8803779277186891e+01 -1.0373773100520515e+02 0 0 0
2472 1 1.4265835201944945e+00 -9.8803779277190458e+01 -1.0373773100517994e+02 0 0 0
2475 1 -1.4259747924449129e+00 -1.0045092857539500e+02 -1.0140654738302413e+02 0 0 0
2476 1 1.4265852077494023e+00 -1.0045092857540759e+02 -1.0140654738300579e+02 0 0 0
2477 1 3.0811371541141923e-04 -9.7980214110054547e+01 -1.0140654946049466e+02 0 0 0
2478 1 -2.8522518862650164e+00 -9.7980214110170195e+01 -1.0140654946033241e+02 0 0 0
2473 1 3.0688862502603950e-04 -9.6333065537662534e+01 -1.0373773404629620e+02 0 0 0
2474 1 -2.8522531113701035e+00 -9.6333065537545366e+01 -1.0373773404645962e+02 0 0 0
2479 1 -1.4259694256391438e+00 -9.3862351932189270e+01 -1.0373773829401146e+02 0 0 0
2480 1 1.4265905745848515e+00 -9.3862351932215745e+01 -1.0373773829400083e+02 0 0 0
2481 1 -1.4259686665409519e+00 -9.5509499809181023e+01 -1.0140655279539821e+02 0 0 0
2482 1 1.4265913332374873e+00 -9.5509499809177342e+01 -1.0140655279540903e+02 0 0 0
2483 1 3.1484816226630397e-04 -9.3038785585585529e+01 -1.0140655743472638e+02 0 0 0
2484 1 -2.8522451518529190e+00 -9.3038785585455443e+01 -1.0140655743490967e+02 0 0 0
2485 1 -2.8522454432115625e+00 -9.1391638346981651e+01 -1.0373774383833518e+02 0 0 0
2486 1 3.1455676909028637e-04 -9.1391638346845042e+01 -1.0373774383852829e+02 0 0 0
2487 1 -1.4259611823731067e+00 -8.8920924626158126e+01 -1.0373775087185054e+02 0 0 0
2488 1 1.4265988173682118e+00 -8.8920924626153806e+01 -1.0373775087184904e+02 0 0 0
2489 1 -1.4259613600337164e+00 -9.0568071358182564e+01 -1.0140656349357224e+02 0 0 0
2490 1 1.4265986402162705e+00 -9.0568071358188817e+01 -1.0140656349356544e+02 0 0 0
2491 1 3.2269205372618791e-04 -8.8097357080026939e+01 -1.0140657116785145e+02 0 0 0
2492 1 -2.8522373079338443e+00 -8.8097357080175300e+01 -1.0140657116764370e+02 0 0 0
4761 1 3.2334115178300993e-04 -8.6450210706060119e+01 -1.0373775979785211e+02 0 0 0
4762 1 -2.8522366588455910e+00 -8.6450210705912482e+01 -1.0373775979806281e+02 0 0 0
4763 1 -1.4259518876490331e+00 -8.3979496737521998e+01 -1.0373777106959082e+02 0 0 0
4764 1 1.4266081126362897e+00 -8.3979496737536508e+01 -1.0373777106956602e+02 0 0 0
4765 1 -1.4259530124465398e+00 -8.5626642807383789e+01 -1.0140658071487668e+02 0 0 0
4766 1 1.4266069872708294e+00 -8.5626642807383789e+01 -1.0140658071487667e+02 0 0 0
2499 1 3.0461250362809393e-04 -1.1115737588329206e+02 -9.6744192380527167e+01 0 0 0
2500 1 -2.8522553874791918e+00 -1.1115737588337423e+02 -9.6744192380411221e+01 0 0 0
2501 1 1.4265830615557329e+00 -1.0703950924889624e+02 -9.9075367154298988e+01 0 0 0
2502 1 -2.8522584279443839e+00 -1.0951022505036620e+02 -9.9075370923692418e+01 0 0 0
2503 1 -1.4259769386076799e+00 -1.0703950924888731e+02 -9.9075367154311678e+01 0 0 0
2504 1 3.0157207293450371e-04 -1.0951022505045030e+02 -9.9075370923573217e+01 0 0 0
2505 1 -1.4259742388265171e+00 -1.0868665994942904e+02 -9.6744187614633205e+01 0 0 0
2507 1 1.4265857610141983e+00 -1.0868665994941983e+02 -9.6744187614646265e+01 0 0 0
2544 1 1.4265884723802631e+00 -1.1033381036654802e+02 -9.4413008350424860e+01 0 0 0
2546 1 -1.4259715277749041e+00 -1.1033381036653898e+02 -9.4413008350437622e+01 0 0 0
2551 1 3.0962366879867657e-04 -1.0786309436082975e+02 -9.4413004279966160e+01 0 0 0
2556 1 -2.8522503763154399e+00 -1.0786309436092201e+02 -9.4413004279835732e+01 0 0 0
2506 1 -2.8522527658745909e+00 -1.0621594407011025e+02 -9.6744184455925108e+01 0 0 0
2508 1 3.0723414152485665e-04 -1.0621594407020497e+02 -9.6744184455791526e+01 0 0 0
2509 1 -1.4259729441101958e+00 -1.0209807833423237e+02 -9.9075364716475903e+01 0 0 0
2510 1 3.0489278447352533e-04 -1.0456879365865643e+02 -9.9075365138674414e+01 0 0 0
2511 1 1.4265870557024736e+00 -1.0209807833422408e+02 -9.9075364716487300e+01 0 0 0
2512 1 -2.8522551071997060e+00 -1.0456879365875366e+02 -9.9075365138536782e+01 0 0 0
2515 1 1.4265890237445740e+00 -1.0374522834055102e+02 -9.6744182879677382e+01 0 0 0
2516 1 -1.4259709764381221e+00 -1.0374522834054240e+02 -9.6744182879689760e+01 0 0 0
2565 1 1.4265910757709750e+00 -1.0539237839935956e+02 -9.4413001683270522e+01 0 0 0
2566 1 3.1282115076266219e-04 -1.0292166254690885e+02 -9.4413000552796433e+01 0 0 0
2567 1 -1.4259689240510516e+00 -1.0539237839936798e+02 -9.4413001683258599e+01 0 0 0
2572 1 -2.8522471788638937e+00 -1.0292166254680345e+02 -9.4413000552945434e+01 0 0 0
2513 1 3.1111989017185051e-04 -1.0127451279961366e+02 -9.6744182797085216e+01 0 0 0
2514 1 -2.8522488800947587e+00 -1.0127451279972193e+02 -9.6744182796932535e+01 0 0 0
2518 1 3.0953832846639817e-04 -9.9627363257787621e+01 -9.9075365730408265e+01 0 0 0
2519 1 -2.8522504616863240e+00 -9.9627363257676606e+01 -9.9075365730565366e+01 0 0 0
2521 1 -1.4259664884538057e+00 -9.8803797440672597e+01 -9.6744184118917701e+01 0 0 0
2522 1 1.4265935113381754e+00 -9.8803797440664738e+01 -9.6744184118928800e+01 0 0 0
2577 1 -1.4259651498630872e+00 -1.0045094683412719e+02 -9.4413000842011272e+01 0 0 0
2578 1 -2.8522428475932959e+00 -9.7980231264152593e+01 -9.4413002503199252e+01 0 0 0
2583 1 3.1715239334361892e-04 -9.7980231264032909e+01 -9.4413002503368389e+01 0 0 0
2584 1 1.4265948503394810e+00 -1.0045094683413497e+02 -9.4413000842000216e+01 0 0 0
2517 1 -1.4259676737430487e+00 -9.7156648372989636e+01 -9.9075368084946120e+01 0 0 0
2520 1 1.4265923264702716e+00 -9.7156648372998461e+01 -9.9075368084934354e+01 0 0 0
2523 1 3.1618538133034748e-04 -9.6333082232214181e+01 -9.6744186794745858e+01 0 0 0
2524 1 -2.8522438146322693e+00 -9.6333082232091229e+01 -9.6744186794919145e+01 0 0 0
2525 1 -2.8522445955164453e+00 -9.4685933614966331e+01 -9.9075371761868652e+01 0 0 0
2528 1 3.1540446999379381e-04 -9.4685933614840209e+01 -9.9075371762047070e+01 0 0 0
2529 1 -1.4259608725238375e+00 -9.3862367139523499e+01 -9.6744190824064717e+01 0 0 0
2530 1 1.4265991277117973e+00 -9.3862367139530434e+01 -9.6744190824054911e+01 0 0 0
2589 1 -2.8522374733031786e+00 -9.3038800510680659e+01 -9.4413009873799240e+01 0 0 0
2590 1 3.2252670832464325e-04 -9.3038800510816031e+01 -9.4413009873607990e+01 0 0 0
2591 1 1.4265997154801910e+00 -9.5509515825982561e+01 -9.4413005512158165e+01 0 0 0
2592 1 -1.4259602842903831e+00 -9.5509515825989482e+01 -9.4413005512148331e+01 0 0 0
2526 1 -1.4259612434791726e+00 -9.2215218928328497e+01 -9.9075376811526681e+01 0 0 0
2527 1 1.4265987562792568e+00 -9.2215218928320908e+01 -9.9075376811537453e+01 0 0 0
2531 1 3.2236563682992513e-04 -8.9744504283392729e+01 -9.9075383336180309e+01 0 0 0
2532 1 -2.8522376343750810e+00 -8.9744504283250222e+01 -9.9075383336381904e+01 0 0 0
2535 1 3.2232315306471169e-04 -9.1391652142262146e+01 -9.6744196249738323e+01 0 0 0
2536 1 -2.8522376768353865e+00 -9.1391652142401242e+01 -9.6744196249542327e+01 0 0 0
2537 1 -1.4259542433326142e+00 -8.8920937249784487e+01 -9.6744203142586656e+01 0 0 0
2538 1 1.4266057564011991e+00 -8.8920937249778973e+01 -9.6744203142594316e+01 0 0 0
2599 1 3.2883582963667829e-04 -8.8097370297962513e+01 -9.4413022776822430e+01 0 0 0
2600 1 1.4266055718404083e+00 -9.0568085324329587e+01 -9.4413015616462445e+01 0 0 0
2601 1 -1.4259544284186614e+00 -9.0568085324323889e+01 -9.4413015616470560e+01 0 0 0
2602 1 -2.8522311641614886e+00 -8.8097370298115365e+01 -9.4413022776606638e+01 0 0 0
2533 1 -1.4259537845544272e+00 -8.7273789701583482e+01 -9.9075391474435435e+01 0 0 0
2534 1 1.4266062157183985e+00 -8.7273789701590204e+01 -9.9075391474425473e+01 0 0 0
4807 1 3.3028922783222693e-04 -8.4803075284135929e+01 -9.9075401350211706e+01 0 0 0
4808 1 -2.8522297107631531e+00 -8.4803075284297066e+01 -9.9075401349983935e+01 0 0 0
4811 1 3.2941161996741860e-04 -8.6450222515680963e+01 -9.6744211575218600e+01 0 0 0
4812 1 -2.8522305883885974e+00 -8.6450222515523890e+01 -9.6744211575439820e+01 0 0 0
4813 1 -1.4259467286120857e+00 -8.3979508042432855e+01 -9.6744221576246147e+01 0 0 0
4814 1 1.4266132716882607e+00 -8.3979508042436564e+01 -9.6744221576241088e+01 0 0 0
4855 1 1.4266123033724747e+00 -8.5626655493547958e+01 -9.4413031373733105e+01 0 0 0
4856 1 -1.4259476963353857e+00 -8.5626655493551908e+01 -9.4413031373727478e+01 0 0 0
2549 1 3.1443822311315512e-04 -1.1115739427233139e+02 -8.9750644565957529e+01 0 0 0
2550 1 -2.8522455617615878e+00 -1.1115739427242011e+02 -8.9750644565832033e+01 0 0 0
2552 1 1.4265931818250066e+00 -1.0703952837125644e+02 -9.2081820918549795e+01 0 0 0
2553 1 -1.4259668183493537e+00 -1.0703952837124817e+02 -9.2081820918561533e+01 0 0 0
2554 1 -2.8522479668654226e+00 -1.0951024443990029e+02 -9.2081824370037566e+01 0 0 0
2555 1 3.1203315011223631e-04 -1.0951024443999067e+02 -9.2081824369909867e+01 0 0 0
2557 1 -1.4259646852525136e+00 -1.0868667817343571e+02 -8.9750640406854899e+01 0 0 0
2558 1 1.4265953145762724e+00 -1.0868667817342757e+02 -8.9750640406866438e+01 0 0 0
2559 1 3.1645573597800217e-04 -1.0621596205949616e+02 -8.9750637519525725e+01 0 0 0
2560 1 -2.8522435442781724e+00 -1.0621596205939487e+02 -8.9750637519668899e+01 0 0 0
2561 1 -2.8522453906724858e+00 -1.0456881233902490e+02 -9.2081818846838090e+01 0 0 0
2562 1 3.1460931309586237e-04 -1.0456881233892167e+02 -9.2081818846983850e+01 0 0 0
2563 1 1.4265963083443871e+00 -1.0209809639088334e+02 -9.2081818157194078e+01 0 0 0
2564 1 -1.4259636914572678e+00 -1.0209809639089099e+02 -9.2081818157183250e+01 0 0 0
2570 1 -1.4259621445033541e+00 -1.0374524597778516e+02 -8.9750635940740764e+01 0 0 0
2571 1 1.4265978556912720e+00 -1.0374524597779266e+02 -8.9750635940730149e+01 0 0 0
2568 1 3.1950705507278473e-04 -1.0127452996703637e+02 -8.9750635677670488e+01 0 0 0
2569 1 -2.8522404929320300e+00 -1.0127452996715122e+02 -8.9750635677508214e+01 0 0 0
2575 1 -2.8522417297565910e+00 -9.9627380554414998e+01 -9.2081818827337855e+01 0 0 0
2576 1 3.1827025654305254e-04 -9.9627380554532124e+01 -9.2081818827172498e+01 0 0 0
2579 1 -1.4259585982284109e+00 -9.8803814054321478e+01 -8.9750636721365439e+01 0 0 0
2580 1 1.4266014015515156e+00 -9.8803814054314742e+01 -8.9750636721374974e+01 0 0 0
2573 1 1.4266004846950184e+00 -9.7156664841242502e+01 -9.2081820833269944e+01 0 0 0
2574 1 -1.4259595155294802e+00 -9.7156664841235710e+01 -9.2081820833279622e+01 0 0 0
2581 1 -2.8522364702632035e+00 -9.6333098257810747e+01 -8.9750639060344284e+01 0 0 0
2582 1 3.2352974807823231e-04 -9.6333098257940449e+01 -8.9750639060161106e+01 0 0 0
2587 1 -2.8522370598779694e+00 -9.4685949256375096e+01 -9.2081824163383772e+01 0 0 0
2588 1 3.2294011062087804e-04 -9.4685949256242679e+01 -9.2081824163570587e+01 0 0 0
2593 1 -1.4259541195534640e+00 -9.3862382593980925e+01 -8.9750642686930192e+01 0 0 0
2594 1 1.4266058806946158e+00 -9.3862382593986581e+01 -8.9750642686922134e+01 0 0 0
2585 1 1.4266056243668548e+00 -9.2215233808950245e+01 -9.2081828821107948e+01 0 0 0
2586 1 -1.4259543753797930e+00 -9.2215233808955929e+01 -9.2081828821099919e+01 0 0 0
2597 1 -2.8522314755610485e+00 -8.9744518521267622e+01 -9.2081834818120129e+01 0 0 0
2598 1 3.2852444791959618e-04 -8.9744518521416992e+01 -9.2081834817909481e+01 0 0 0
2603 1 -2.8522315575680732e+00 -9.1391667083457790e+01 -8.9750647598954203e+01 0 0 0
2604 1 1.4266112025511015e+00 -8.8920951756284097e+01 -8.9750653793408929e+01 0 0 0
2605 1 3.2844242290097289e-04 -9.1391667083311646e+01 -8.9750647599160516e+01 0 0 0
2606 1 -1.4259487971697307e+00 -8.8920951756288275e+01 -8.9750653793402989e+01 0 0 0
2595 1 1.4266116259951114e+00 -8.7273803433678097e+01 -9.2081842161068977e+01 0 0 0
2596 1 -1.4259483742903358e+00 -8.7273803433674033e+01 -9.2081842161074761e+01 0 0 0
4853 1 -2.8522250862152236e+00 -8.4803088603442376e+01 -9.2081850833307428e+01 0 0 0
4854 1 3.3491377925165902e-04 -8.4803088603274119e+01 -9.2081850833544678e+01 0 0 0
4861 1 3.3414789330281553e-04 -8.6450236653943364e+01 -8.9750661255244367e+01 0 0 0
4862 1 -2.8522258521125616e+00 -8.6450236653778944e+01 -8.9750661255476402e+01 0 0 0
4863 1 -1.4259427364159050e+00 -8.3979521824920141e+01 -8.9750669946529072e+01 0 0 0
4864 1 1.4266172638978112e+00 -8.3979521824922244e+01 -8.9750669946526031e+01 0 0 0
2609 1 -1.4259625484872898e+00 -1.1033382776163582e+02 -8.7419460020275253e+01 0 0 0
2610 1 1.4265974516815503e+00 -1.1033382776164385e+02 -8.7419460020263870e+01 0 0 0
2615 1 3.1833527190777526e-04 -1.0786311163226031e+02 -8.7419456432382134e+01 0 0 0
2616 1 -2.8522416647141529e+00 -1.0786311163236013e+02 -8.7419456432241020e+01 0 0 0
2617 1 3.2022613636943349e-04 -1.0951026100985453e+02 -8.5088275478921886e+01 0 0 0
2618 1 -2.8522397738773702e+00 -1.0951026100975584e+02 -8.5088275479061380e+01 0 0 0
2619 1 -1.4259588878021083e+00 -1.0703954487566669e+02 -8.5088272419558706e+01 0 0 0
2620 1 1.4266011123873559e+00 -1.0703954487567394e+02 -8.5088272419548389e+01 0 0 0
2621 1 -1.4259605351346869e+00 -1.0539239549576074e+02 -8.7419454065681109e+01 0 0 0
2622 1 1.4265994646735851e+00 -1.0539239549575338e+02 -8.7419454065691582e+01 0 0 0
2623 1 3.2083434730076669e-04 -1.0292167939103159e+02 -8.7419452949081986e+01 0 0 0
2624 1 -2.8522391656654014e+00 -1.0292167939091853e+02 -8.7419452949241702e+01 0 0 0
2625 1 -1.4259564359479280e+00 -1.0209811264088736e+02 -8.5088269852142119e+01 0 0 0
2626 1 1.4266035638384014e+00 -1.0209811264088081e+02 -8.5088269852151399e+01 0 0 0
2627 1 3.2222676201032913e-04 -1.0456882874120156e+02 -8.5088270536324615e+01 0 0 0
2628 1 -2.8522377732254904e+00 -1.0456882874131318e+02 -8.5088270536166860e+01 0 0 0
2629 1 -1.4259575630740842e+00 -1.0045096335192585e+02 -8.7419453092043128e+01 0 0 0
2630 1 1.4266024371424455e+00 -1.0045096335193247e+02 -8.7419453092033720e+01 0 0 0
2631 1 3.2426472226763133e-04 -9.7980247406120270e+01 -8.7419454491955207e+01 0 0 0
2632 1 -2.8522357352665737e+00 -9.7980247406247798e+01 -8.7419454491775156e+01 0 0 0
2633 1 3.2511709333618875e-04 -9.9627396606241689e+01 -8.5088270376334989e+01 0 0 0
2634 1 -2.8522348829176933e+00 -9.9627396606115980e+01 -8.5088270376512568e+01 0 0 0
2635 1 -1.4259531217265959e+00 -9.7156680665462986e+01 -8.5088272108744150e+01 0 0 0
2636 1 1.4266068785135555e+00 -9.7156680665468599e+01 -8.5088272108736163e+01 0 0 0
2637 1 -1.4259536916641160e+00 -9.5509531577102294e+01 -8.7419457141787362e+01 0 0 0
2638 1 1.4266063080921283e+00 -9.5509531577096695e+01 -8.7419457141795348e+01 0 0 0
2639 1 3.2855728022344573e-04 -9.3038815887909934e+01 -8.7419461034249025e+01 0 0 0
2640 1 -2.8522314427288449e+00 -9.3038815887766461e+01 -8.7419461034451544e+01 0 0 0
2641 1 3.2883905039430579e-04 -9.4685964845124573e+01 -8.5088275043319470e+01 0 0 0
2642 1 -2.8522311609405229e+00 -9.4685964845265786e+01 -8.5088275043120106e+01 0 0 0
2643 1 -1.4259490105420334e+00 -9.2215249172294747e+01 -8.5088279170089223e+01 0 0 0
2644 1 1.4266109891885921e+00 -9.2215249172290427e+01 -8.5088279170095404e+01 0 0 0
2645 1 -1.4259489993761201e+00 -9.0568100365283115e+01 -8.7419466160657691e+01 0 0 0
2646 1 1.4266110008977801e+00 -9.0568100365287378e+01 -8.7419466160651623e+01 0 0 0
2647 1 3.3362664340960555e-04 -8.8097385042239608e+01 -8.7419472505686656e+01 0 0 0
2648 1 -2.8522263733504407e+00 -8.8097385042400802e+01 -8.7419472505459282e+01 0 0 0
2649 1 3.3331857197000731e-04 -8.9744533676250555e+01 -8.5088284474348072e+01 0 0 0
2650 1 -2.8522266814344333e+00 -8.9744533676092203e+01 -8.5088284474571580e+01 0 0 0
2651 1 -1.4259441848141097e+00 -8.7273818389374142e+01 -8.5088290932725101e+01 0 0 0
2652 1 1.4266158154876412e+00 -8.7273818389376714e+01 -8.5088290932721392e+01 0 0 0
4921 1 -1.4259435777557263e+00 -8.5626669957311947e+01 -8.7419480040454005e+01 0 0 0
4922 1 1.4266164219369168e+00 -8.5626669957309574e+01 -8.7419480040457358e+01 0 0 0
4925 1 3.3846739693589914e-04 -8.4803103346128481e+01 -8.5088298508114946e+01 0 0 0
4926 1 -2.8522215326003528e+00 -8.4803103346305790e+01 -8.5088298507864693e+01 0 0 0
2655 1 3.2210936723030416e-04 -1.1115741015946206e+02 -8.2757094582842555e+01 0 0 0
2656 1 -2.8522378906191759e+00 -1.1115741015955997e+02 -8.2757094582704127e+01 0 0 0
2659 1 -1.4259555578864322e+00 -1.1033384304371280e+02 -8.0425909469960402e+01 0 0 0
2660 1 1.4266044423004911e+00 -1.1033384304371990e+02 -8.0425909469950312e+01 0 0 0
2661 1 -1.4259572224604089e+00 -1.0868669406985143e+02 -8.2757090911351568e+01 0 0 0
2662 1 1.4266027773516958e+00 -1.0868669406984425e+02 -8.2757090911361743e+01 0 0 0
2665 1 3.2512027190763533e-04 -1.0786312698826845e+02 -8.0425906290758064e+01 0 0 0
2666 1 -2.8522348797158767e+00 -1.0786312698837838e+02 -8.0425906290602668e+01 0 0 0
2663 1 3.2366197426551754e-04 -1.0621597795564172e+02 -8.2757088343472603e+01 0 0 0
2664 1 -2.8522363380380793e+00 -1.0621597795553110e+02 -8.2757088343628908e+01 0 0 0
2669 1 -1.4259552415788128e+00 -1.0374526184793406e+02 -8.2757086909785798e+01 0 0 0
2670 1 1.4266047586327517e+00 -1.0374526184794053e+02 -8.2757086909776632e+01 0 0 0