LAMMPS data file 

18360 atoms
1 atom types

-2.8525600000000000e+00 2.8525600000000000e+00 xlo xhi
-1.1118199920000001e+02 1.1118199920000001e+02 ylo yhi
-1.2579350280000000e+02 1.2579350280000000e+02 zlo zhi

Masses

1 26.9815

Atoms # atomic

2363 1 -4.0519480000000002e-01 -1.1115734100000000e+02 -1.1763986970000001e+02 0 0 0
2364 1 2.4473653000000000e+00 -1.1115734100000000e+02 -1.1763986970000001e+02 0 0 0
2369 1 -1.8631724000000001e+00 -1.0868663030000000e+02 -1.1763986970000001e+02 0 0 0
2370 1 9.8938780000000004e-01 -1.0868663030000000e+02 -1.1763986970000001e+02 0 0 0
2406 1 -1.8339366902452690e+00 -1.1033384819669467e+02 -1.1539188742325832e+02 0 0 0
2407 1 1.0186233146208308e+00 -1.1033384820703938e+02 -1.1539188745090171e+02 0 0 0
2415 1 -4.3926502408451312e-01 -1.0786315588875414e+02 -1.1539188882449193e+02 0 0 0
2416 1 2.4132949692786827e+00 -1.0786315586862220e+02 -1.1539188877157301e+02 0 0 0
2371 1 -4.6858430000000001e-01 -1.0621591950000000e+02 -1.1763986970000001e+02 0 0 0
2372 1 2.3839755000000000e+00 -1.0621591950000000e+02 -1.1763986970000001e+02 0 0 0
2379 1 -1.9265505999999999e+00 -1.0374521640000000e+02 -1.1763986970000001e+02 0 0 0
2380 1 9.2600919999999998e-01 -1.0374521640000000e+02 -1.1763986970000001e+02 0 0 0
2425 1 -5.0248325576041186e-01 -1.0292176799981436e+02 -1.1539189516575426e+02 0 0 0
2426 1 2.3500767565278355e+00 -1.0292176802024591e+02 -1.1539189521811086e+02 0 0 0
2431 1 -1.8971537865008214e+00 -1.0539246343028945e+02 -1.1539189021240706e+02 0 0 0
2432 1 9.5540620492004613e-01 -1.0539246341153643e+02 -1.1539189015949682e+02 0 0 0
2375 1 -5.3196270000000001e-01 -1.0127450560000000e+02 -1.1763986970000001e+02 0 0 0
2376 1 2.3205977000000000e+00 -1.0127450560000000e+02 -1.1763986970000001e+02 0 0 0
2385 1 -1.9899344000000001e+00 -9.8803771999999995e+01 -1.1763986970000001e+02 0 0 0
2386 1 8.6262559999999999e-01 -9.8803771999999995e+01 -1.1763986970000001e+02 0 0 0
2437 1 -1.9603773605349299e+00 -1.0045106910321425e+02 -1.1539190296670468e+02 0 0 0
2438 1 8.9218264311587492e-01 -1.0045106914517125e+02 -1.1539190307233883e+02 0 0 0
2439 1 -5.6571473558839669e-01 -9.7980370963201381e+01 -1.1539190301154663e+02 0 0 0
2440 1 2.2868452607375693e+00 -9.7980370963233526e+01 -1.1539190301263719e+02 0 0 0
2387 1 -5.9534650000000000e-01 -9.6333068900000001e+01 -1.1763986970000001e+02 0 0 0
2388 1 2.2572136000000000e+00 -9.6333068900000001e+01 -1.1763986970000001e+02 0 0 0
2393 1 -2.0533128000000000e+00 -9.3862358200000003e+01 -1.1763989260000000e+02 0 0 0
2394 1 7.9924750000000000e-01 -9.3862358200000003e+01 -1.1763989260000000e+02 0 0 0
2396 1 2.2236021343453927e+00 -9.3038977640974593e+01 -1.1539193294649090e+02 0 0 0
2397 1 -6.2895786170308354e-01 -9.3038977673187304e+01 -1.1539193302671150e+02 0 0 0
2398 1 8.2894452111464900e-01 -9.5509671799435452e+01 -1.1539191538098828e+02 0 0 0
2399 1 -2.0236154859585231e+00 -9.5509671788674652e+01 -1.1539191535291729e+02 0 0 0
2377 1 2.1603433111469124e+00 -8.8097587992035344e+01 -1.1539194983386174e+02 0 0 0
2378 1 -6.9221669018193654e-01 -8.8097588003063095e+01 -1.1539194986189439e+02 0 0 0
2381 1 7.6569421265060134e-01 -9.0568281062830195e+01 -1.1539194415613109e+02 0 0 0
2382 1 -2.0868657846538974e+00 -9.0568281072417207e+01 -1.1539194418268013e+02 0 0 0
2395 1 -6.5872459999999999e-01 -9.1391647399999997e+01 -1.1763989260000000e+02 0 0 0
2400 1 2.1938352999999999e+00 -9.1391647399999997e+01 -1.1763989260000000e+02 0 0 0
2401 1 -2.1166909000000000e+00 -8.8920913799999994e+01 -1.1763989260000000e+02 0 0 0
2402 1 7.3586920000000000e-01 -8.8920913799999994e+01 -1.1763989260000000e+02 0 0 0
4673 1 -7.2209690000000004e-01 -8.6450233499999996e+01 -1.1763992310000000e+02 0 0 0
4674 1 2.1304631000000001e+00 -8.6450233499999996e+01 -1.1763992310000000e+02 0 0 0
4675 1 -2.1800690000000000e+00 -8.3979545599999994e+01 -1.1763992310000000e+02 0 0 0
4676 1 6.7249090000000000e-01 -8.3979545599999994e+01 -1.1763992310000000e+02 0 0 0
4717 1 -2.1501318669378553e+00 -8.5626905654587262e+01 -1.1539197316782689e+02 0 0 0
4718 1 7.0242812898523299e-01 -8.5626905655186292e+01 -1.1539197316745215e+02 0 0 0
2413 1 -3.8510895520277244e-01 -1.1115829947294633e+02 -1.1073098043113573e+02 0 0 0
2414 1 2.4674510447633620e+00 -1.1115829947385048e+02 -1.1073098043066535e+02 0 0 0
2417 1 -4.1306965527113487e-01 -1.0951069714559306e+02 -1.1306280508658655e+02 0 0 0
2418 1 2.4394903421961978e+00 -1.0951069714918420e+02 -1.1306280508109093e+02 0 0 0
2419 1 -1.8708501651092282e+00 -1.0704002558861674e+02 -1.1306280739619601e+02 0 0 0
2420 1 9.8170982839033893e-01 -1.0704002559161540e+02 -1.1306280739061361e+02 0 0 0
2421 1 -1.8427580798871210e+00 -1.0868764741499828e+02 -1.1073097852055606e+02 0 0 0
2422 1 1.0098019199595321e+00 -1.0868764741545404e+02 -1.1073097851961440e+02 0 0 0
2423 1 -4.4785351753037389e-01 -1.0621699615090368e+02 -1.1073098240134927e+02 0 0 0
2424 1 2.4047064825804481e+00 -1.0621699615076136e+02 -1.1073098240250793e+02 0 0 0
2427 1 -1.9338656722014009e+00 -1.0209867750234464e+02 -1.1306282038165168e+02 0 0 0
2428 1 9.1869433540671852e-01 -1.0209867749756415e+02 -1.1306282039322458e+02 0 0 0
2429 1 -4.7607512000397018e-01 -1.0456935223280337e+02 -1.1306281217740877e+02 0 0 0
2430 1 2.3764848852622413e+00 -1.0456935223146337e+02 -1.1306281218267038e+02 0 0 0
2435 1 -1.9055168751841685e+00 -1.0374634500497640e+02 -1.1073099078921280e+02 0 0 0
2436 1 9.4704312509288635e-01 -1.0374634500397458e+02 -1.1073099079119841e+02 0 0 0
2433 1 -5.1062992052721212e-01 -1.0127569392210403e+02 -1.1073100283617373e+02 0 0 0
2434 1 2.3419300786395136e+00 -1.0127569392146350e+02 -1.1073100283574492e+02 0 0 0
2441 1 -5.3910300552626356e-01 -9.9628002346764177e+01 -1.1306282876980178e+02 0 0 0
2442 1 2.3134569782340244e+00 -9.9628002344422640e+01 -1.1306282876984336e+02 0 0 0
2445 1 -1.9683142975040389e+00 -9.8805041982469731e+01 -1.1073101757936330e+02 0 0 0
2446 1 8.8424570224506538e-01 -9.8805041980892724e+01 -1.1073101757820304e+02 0 0 0
2383 1 8.2139683491786653e-01 -9.3863735565020903e+01 -1.1073105692861071e+02 0 0 0
2384 1 -2.0311631644642638e+00 -9.3863735564900651e+01 -1.1073105692927675e+02 0 0 0
2391 1 2.2504009940329972e+00 -9.4686647076695053e+01 -1.1306285361152055e+02 0 0 0
2392 1 -6.0215900283430257e-01 -9.4686647071953132e+01 -1.1306285362047299e+02 0 0 0
2443 1 -1.9969073669097652e+00 -9.7157324407921735e+01 -1.1306283796384329e+02 0 0 0
2444 1 8.5565263117064638e-01 -9.7157324403488005e+01 -1.1306283796710257e+02 0 0 0
2447 1 -5.7345171656119043e-01 -9.6334388791867212e+01 -1.1073103530793689e+02 0 0 0
2448 1 2.2791082833671736e+00 -9.6334388793183166e+01 -1.1073103530708040e+02 0 0 0
2359 1 7.5848771119180725e-01 -8.8922427340454263e+01 -1.1073110437733330e+02 0 0 0
2360 1 -2.0940722887014891e+00 -8.8922427340046454e+01 -1.1073110437683526e+02 0 0 0
2365 1 2.2162303896809088e+00 -9.1393082291459862e+01 -1.1073108021920986e+02 0 0 0
2366 1 -6.3632961071390493e-01 -9.1393082290116780e+01 -1.1073108021854111e+02 0 0 0
2373 1 2.1873125356755194e+00 -8.9745296922572010e+01 -1.1306288653479926e+02 0 0 0
2374 1 -6.6524746832407511e-01 -8.9745296918384810e+01 -1.1306288653796430e+02 0 0 0
2389 1 7.9258129988948745e-01 -9.2215971716576618e+01 -1.1306287159053605e+02 0 0 0
2390 1 -2.0599786878196751e+00 -9.2215971716042702e+01 -1.1306287159437761e+02 0 0 0
2367 1 7.2947394193250925e-01 -8.7274621005354433e+01 -1.1306290347563606e+02 0 0 0
2368 1 -2.1230860548456914e+00 -8.7274621004642512e+01 -1.1306290347597049e+02 0 0 0
4721 1 -7.2837527144255121e-01 -8.4803946729098499e+01 -1.1306292830619347e+02 0 0 0
4722 1 2.1241847278638071e+00 -8.4803946727975131e+01 -1.1306292830909148e+02 0 0 0
4725 1 -6.9927255930369536e-01 -8.6451770265881962e+01 -1.1073113228676370e+02 0 0 0
4726 1 2.1532874406420053e+00 -8.6451770265754931e+01 -1.1073113228746379e+02 0 0 0
4727 1 -2.1570514970989709e+00 -8.3981111438521950e+01 -1.1073116615463873e+02 0 0 0
4728 1 6.9550850303872014e-01 -8.3981111438099759e+01 -1.1073116615502872e+02 0 0 0
2345 1 1.0032110196926718e+00 -1.0704165632116739e+02 -1.0606828136119654e+02 0 0 0
2346 1 -1.8493489803000214e+00 -1.0704165632117666e+02 -1.0606828136118563e+02 0 0 0
2347 1 2.4606077571704645e+00 -1.0951226626648941e+02 -1.0606827698776003e+02 0 0 0
2348 1 -3.9195224283846852e-01 -1.0951226626649581e+02 -1.0606827698777903e+02 0 0 0
2349 1 2.4327592002717493e+00 -1.0786464940806631e+02 -1.0839962576167622e+02 0 0 0
2350 1 -4.1980079975384393e-01 -1.0786464940815964e+02 -1.0839962576163519e+02 0 0 0
2355 1 1.0377218666375385e+00 -1.1033527979917743e+02 -1.0839962485144412e+02 0 0 0
2356 1 -1.8148381334151908e+00 -1.1033527979910622e+02 -1.0839962485155516e+02 0 0 0
2337 1 2.3983612226490338e+00 -1.0457104556742830e+02 -1.0606829154479829e+02 0 0 0
2338 1 -4.5419877734792852e-01 -1.0457104556744015e+02 -1.0606829154476335e+02 0 0 0
2339 1 9.4093551472843462e-01 -1.0210043376151526e+02 -1.0606830648993954e+02 0 0 0
2340 1 -1.9116244852887261e+00 -1.0210043376152274e+02 -1.0606830648991225e+02 0 0 0
2341 1 -1.8773331094387316e+00 -1.0539401900798070e+02 -1.0839963247934740e+02 0 0 0
2342 1 9.7522689061007695e-01 -1.0539401900780271e+02 -1.0839963247952906e+02 0 0 0
2343 1 2.3702426217884094e+00 -1.0292338823676171e+02 -1.0839964379509800e+02 0 0 0
2344 1 -4.8231737813477726e-01 -1.0292338823678979e+02 -1.0839964379498753e+02 0 0 0
2331 1 2.3360507743733709e+00 -9.9629820611838952e+01 -1.0606832556489425e+02 0 0 0
2332 1 -5.1650922561923240e-01 -9.9629820611832869e+01 -1.0606832556490919e+02 0 0 0
2333 1 2.3076688036498201e+00 -9.7982123955050199e+01 -1.0839967770624982e+02 0 0 0
2334 1 -5.4489119656223672e-01 -9.7982123954913263e+01 -1.0839967770638229e+02 0 0 0
2335 1 9.1268399967366443e-01 -1.0045275668893105e+02 -1.0839965902651844e+02 0 0 0
2336 1 -1.9398760002636137e+00 -1.0045275668897061e+02 -1.0839965902648905e+02 0 0 0
2323 1 2.2736526266762178e+00 -9.4688589372229501e+01 -1.0606837500950834e+02 0 0 0
2324 1 -5.7890737333141729e-01 -9.4688589372223404e+01 -1.0606837500954217e+02 0 0 0
2325 1 2.2450203102212374e+00 -9.3040854992971006e+01 -1.0839972550111962e+02 0 0 0
2326 1 -6.0753968983260498e-01 -9.3040854992923059e+01 -1.0839972550116724e+02 0 0 0
2327 1 8.5007484342647355e-01 -9.5511489987835802e+01 -1.0839969984389415e+02 0 0 0
2328 1 -2.0024851566038877e+00 -9.5511489987801170e+01 -1.0839969984395950e+02 0 0 0
2329 1 8.7858408371949936e-01 -9.7159205867316558e+01 -1.0606834839483311e+02 0 0 0
2330 1 -1.9739759162739290e+00 -9.7159205867311783e+01 -1.0606834839481115e+02 0 0 0
2315 1 2.2111451731318321e+00 -8.9747349953171437e+01 -1.0606844085470841e+02 0 0 0
2316 1 -6.4141482686052520e-01 -8.9747349953180375e+01 -1.0606844085471751e+02 0 0 0
2317 1 2.1822832624373993e+00 -8.8099579494507125e+01 -1.0839978595465215e+02 0 0 0
2318 1 -6.7027673748066141e-01 -8.8099579494559279e+01 -1.0839978595456624e+02 0 0 0
2319 1 7.8738363598215333e-01 -9.0570218445611019e+01 -1.0839975408784326e+02 0 0 0
2320 1 -2.0651763641629310e+00 -9.0570218445599664e+01 -1.0839975408777775e+02 0 0 0
2321 1 8.1613369074563491e-01 -9.2217970909652664e+01 -1.0606840581876567e+02 0 0 0
2322 1 -2.0364263092480233e+00 -9.2217970909653616e+01 -1.0606840581875845e+02 0 0 0
2313 1 7.5356564300492956e-01 -8.7276726005409586e+01 -1.0606848137996161e+02 0 0 0
2314 1 -2.0989943570022160e+00 -8.7276726005418269e+01 -1.0606848137996388e+02 0 0 0
4663 1 2.1485133874008278e+00 -8.4806098716141605e+01 -1.0606852867030157e+02 0 0 0
4664 1 -7.0404661259482515e-01 -8.4806098716146906e+01 -1.0606852867029563e+02 0 0 0
4667 1 7.2459806769055646e-01 -8.5628937832234655e+01 -1.0839982330185398e+02 0 0 0
4668 1 -2.1279619323569348e+00 -8.5628937832283910e+01 -1.0839982330179116e+02 0 0 0
2451 1 -3.6430236631460583e-01 -1.1115984808194631e+02 -1.0373691623620728e+02 0 0 0
2452 1 2.4882576336842908e+00 -1.1115984808194915e+02 -1.0373691623620266e+02 0 0 0
2455 1 -1.7939678656006084e+00 -1.1033682847809055e+02 -1.0140554521286494e+02 0 0 0
2456 1 1.0585921343991029e+00 -1.1033682847809094e+02 -1.0140554521286428e+02 0 0 0
2457 1 -1.8215579623630020e+00 -1.0868925897429311e+02 -1.0373691784114546e+02 0 0 0
2458 1 1.0310020376341871e+00 -1.0868925897429476e+02 -1.0373691784114521e+02 0 0 0
2461 1 -3.9853116302537767e-01 -1.0786625815736518e+02 -1.0140555105352166e+02 0 0 0
2462 1 2.4540288369744645e+00 -1.0786625815736450e+02 -1.0140555105352351e+02 0 0 0
2459 1 -4.2626764207035045e-01 -1.0621866835371051e+02 -1.0373692611727340e+02 0 0 0
2460 1 2.4262923579292588e+00 -1.0621866835370768e+02 -1.0373692611728252e+02 0 0 0
2465 1 -1.8835541914743326e+00 -1.0374807617248517e+02 -1.0373694017077281e+02 0 0 0
2466 1 9.6900580852968721e-01 -1.0374807617248210e+02 -1.0373694017078053e+02 0 0 0
2467 1 -4.6027461069357167e-01 -1.0292511096015539e+02 -1.0140558164780633e+02 0 0 0
2468 1 2.3922853893056217e+00 -1.0292511096015495e+02 -1.0140558164780587e+02 0 0 0
2469 1 9.9688766017045038e-01 -1.0539568568123178e+02 -1.0140556348397747e+02 0 0 0
2470 1 -1.8556723398303332e+00 -1.0539568568123261e+02 -1.0140556348397600e+02 0 0 0
2463 1 -4.8830106081290509e-01 -1.0127748223025945e+02 -1.0373695905797389e+02 0 0 0
2464 1 2.3642589391827604e+00 -1.0127748223025716e+02 -1.0373695905796987e+02 0 0 0
2471 1 -1.9456319550247119e+00 -9.8806886315226009e+01 -1.0373698220032662e+02 0 0 0
2472 1 9.0692804497291235e-01 -9.8806886315221249e+01 -1.0373698220032786e+02 0 0 0
2475 1 -1.9174619093693510e+00 -1.0045453380728750e+02 -1.0140560465960583e+02 0 0 0
2476 1 9.3509809062994242e-01 -1.0045453380728651e+02 -1.0140560465960583e+02 0 0 0
2477 1 -5.2211853420613497e-01 -9.7983954021755395e+01 -1.0140563205132375e+02 0 0 0
2478 1 2.3304414657941206e+00 -9.7983954021756418e+01 -1.0140563205132281e+02 0 0 0
2473 1 -5.5043045423557224e-01 -9.6336288208971268e+01 -1.0373700938105407e+02 0 0 0
2474 1 2.3021295457624578e+00 -9.6336288208975617e+01 -1.0373700938104807e+02 0 0 0
2479 1 -2.0078202574996347e+00 -9.3865687667464897e+01 -1.0373704116051674e+02 0 0 0
2480 1 8.4473974249598938e-01 -9.3865687667464755e+01 -1.0373704116051783e+02 0 0 0
2481 1 -1.9793690901391194e+00 -9.5513371343359452e+01 -1.0140566420937773e+02 0 0 0
2482 1 8.7319090986041514e-01 -9.5513371343359267e+01 -1.0140566420937759e+02 0 0 0
2483 1 -5.8409776960476845e-01 -9.3042785474235771e+01 -1.0140570180007877e+02 0 0 0
2484 1 2.2684622303952109e+00 -9.3042785474236425e+01 -1.0140570180007900e+02 0 0 0
2485 1 2.2398753603753110e+00 -9.1395084378522725e+01 -1.0373707803482007e+02 0 0 0
2486 1 -6.1268463962460240e-01 -9.1395084378520039e+01 -1.0373707803481999e+02 0 0 0
2487 1 -2.0701461081697330e+00 -8.8924477858951832e+01 -1.0373712069695495e+02 0 0 0
2488 1 7.8241389182903254e-01 -8.8924477858951917e+01 -1.0373712069695418e+02 0 0 0
2489 1 -2.0414284321471734e+00 -9.0572196052720841e+01 -1.0140574553223315e+02 0 0 0
2490 1 8.1113156785303175e-01 -9.0572196052721026e+01 -1.0140574553223313e+02 0 0 0
2491 1 -6.4624359318682756e-01 -8.8101602730420382e+01 -1.0140579691456597e+02 0 0 0
2492 1 2.2063164068131598e+00 -8.8101602730420240e+01 -1.0140579691456648e+02 0 0 0
4761 1 -6.7508630843676942e-01 -8.6453867715576109e+01 -1.0373717055889769e+02 0 0 0
4762 1 2.1774736915636317e+00 -8.6453867715574802e+01 -1.0373717055889881e+02 0 0 0
4763 1 -2.1326273492780548e+00 -8.3983253627110997e+01 -1.0373722828954185e+02 0 0 0
4764 1 7.1993265072224122e-01 -8.3983253627109988e+01 -1.0373722828954214e+02 0 0 0
4765 1 -2.1036656382830872e+00 -8.5631005162790331e+01 -1.0140585672694961e+02 0 0 0
4766 1 7.4889436171688373e-01 -8.5631005162790018e+01 -1.0140585672695018e+02 0 0 0
2499 1 -3.4368335186336912e-01 -1.1116134406682978e+02 -9.6742776146517343e+01 0 0 0
2500 1 2.5088766481366394e+00 -1.1116134406682977e+02 -9.6742776146517386e+01 0 0 0
2501 1 1.0245721696207577e+00 -1.0704326353500817e+02 -9.9074177440482700e+01 0 0 0
2502 1 2.4815608819643438e+00 -1.0951381626643905e+02 -9.9074167322937754e+01 0 0 0
2503 1 -1.8279878303793868e+00 -1.0704326353500831e+02 -9.9074177440482529e+01 0 0 0
2504 1 -3.7099911803569746e-01 -1.0951381626643921e+02 -9.9074167322937470e+01 0 0 0
2505 1 -1.8005121962030639e+00 -1.0869081095443148e+02 -9.6742783132375365e+01 0 0 0
2507 1 1.0520478037969547e+00 -1.0869081095443147e+02 -9.6742783132375408e+01 0 0 0
2544 1 1.0793015604383465e+00 -1.1033832914522631e+02 -9.4411381934280740e+01 0 0 0
2546 1 -1.7732584395616522e+00 -1.1033832914522630e+02 -9.4411381934280726e+01 0 0 0
2551 1 -3.7738275166575264e-01 -1.0786781207325215e+02 -9.4411393091303395e+01 0 0 0
2556 1 2.4751772483342527e+00 -1.0786781207325213e+02 -9.4411393091303381e+01 0 0 0
2506 1 2.4477563942194447e+00 -1.0622027477771000e+02 -9.6742797518783803e+01 0 0 0
2508 1 -4.0480360578054586e-01 -1.0622027477771003e+02 -9.6742797518783803e+01 0 0 0
2509 1 -1.8894750998267538e+00 -1.0210214978166954e+02 -9.9074216525094741e+01 0 0 0
2510 1 -4.3243862593398769e-01 -1.0457270808379420e+02 -9.9074194139924060e+01 0 0 0
2511 1 9.6308490017316783e-01 -1.0210214978166940e+02 -9.9074216525094741e+01 0 0 0
2512 1 2.4201213740658991e+00 -1.0457270808379408e+02 -9.9074194139924074e+01 0 0 0
2515 1 9.9087840534390814e-01 -1.0374973536538457e+02 -9.6742818491418078e+01 0 0 0
2516 1 -1.8616815946560825e+00 -1.0374973536538455e+02 -9.6742818491418063e+01 0 0 0
2565 1 1.0184662983293475e+00 -1.0539729156040109e+02 -9.4411411659975599e+01 0 0 0
2566 1 -4.3827598646883775e-01 -1.0292676732382583e+02 -9.4411436769462725e+01 0 0 0
2567 1 -1.8340937016706587e+00 -1.0539729156040111e+02 -9.4411411659975599e+01 0 0 0
2572 1 2.4142840135311663e+00 -1.0292676732382583e+02 -9.4411436769462711e+01 0 0 0
2513 1 -4.6603024379667857e-01 -1.0127919252417040e+02 -9.6742845069758687e+01 0 0 0
2514 1 2.3865297562033208e+00 -1.0127919252417041e+02 -9.6742845069758673e+01 0 0 0
2518 1 -4.9398167195549397e-01 -9.9631588403574398e+01 -9.9074243751137004e+01 0 0 0
2519 1 2.3585783280445827e+00 -9.9631588403574568e+01 -9.9074243751136905e+01 0 0 0
2521 1 -1.9229748657115633e+00 -9.8808645948223514e+01 -9.6742876994592038e+01 0 0 0
2522 1 9.2958513428844947e-01 -9.8808645948223514e+01 -9.6742876994592066e+01 0 0 0
2577 1 -1.8950546504114703e+00 -1.0045623905474321e+02 -9.4411467869694533e+01 0 0 0
2578 1 2.3532442691529472e+00 -9.7985706371490977e+01 -9.4411505013428496e+01 0 0 0
2583 1 -4.9931573084705233e-01 -9.7985706371490963e+01 -9.4411505013428496e+01 0 0 0
2584 1 9.5750534958852329e-01 -1.0045623905474321e+02 -9.4411467869694533e+01 0 0 0
2517 1 -1.9510835696594351e+00 -9.7161023684751171e+01 -9.9074275976054437e+01 0 0 0
2520 1 9.0147643034052272e-01 -9.7161023684751157e+01 -9.9074275976054523e+01 0 0 0
2523 1 -5.2740125629843271e-01 -9.6338095297241694e+01 -9.6742914609379312e+01 0 0 0
2524 1 2.3251587437015635e+00 -9.6338095297241708e+01 -9.6742914609379298e+01 0 0 0
2525 1 2.2968939258191257e+00 -9.4690455319568457e+01 -9.9074313710765281e+01 0 0 0
2528 1 -5.5566607418090797e-01 -9.4690455319568386e+01 -9.9074313710765310e+01 0 0 0
2529 1 -1.9844352379720236e+00 -9.3867540220422157e+01 -9.6742958445599143e+01 0 0 0
2530 1 8.6812476202796807e-01 -9.3867540220422157e+01 -9.6742958445599143e+01 0 0 0
2589 1 2.2920099505447387e+00 -9.3044626164049248e+01 -9.4411599094743295e+01 0 0 0
2590 1 -5.6055004945525777e-01 -9.3044626164049248e+01 -9.4411599094743295e+01 0 0 0
2591 1 8.9637454298053520e-01 -9.5515168876585292e+01 -9.4411548499616345e+01 0 0 0
2592 1 -1.9561854570194674e+00 -9.5515168876585278e+01 -9.4411548499616330e+01 0 0 0
2526 1 -2.0128538497223238e+00 -9.2219882989288692e+01 -9.9074357709395599e+01 0 0 0
2527 1 8.3970615027775475e-01 -9.2219882989288720e+01 -9.9074357709395585e+01 0 0 0
2531 1 -6.1753082988446784e-01 -8.9749306355417247e+01 -9.9074409482895192e+01 0 0 0
2532 1 2.2350291701155052e+00 -8.9749306355417190e+01 -9.9074409482895206e+01 0 0 0
2535 1 -5.8896173692659604e-01 -9.1396980390338882e+01 -9.6743009802775234e+01 0 0 0
2536 1 2.2635982630733942e+00 -9.1396980390338868e+01 -9.6743009802775234e+01 0 0 0
2537 1 -2.0461049180397155e+00 -8.8926415475516961e+01 -9.6743070614030415e+01 0 0 0
2538 1 8.0645508196028792e-01 -8.8926415475516947e+01 -9.6743070614030415e+01 0 0 0
2599 1 -6.2202328139419272e-01 -8.8103523713606080e+01 -9.4411729684818681e+01 0 0 0
2600 1 8.3502572537644482e-01 -9.0574077912785626e+01 -9.4411659031998326e+01 0 0 0
2601 1 -2.0175342746235523e+00 -9.0574077912785611e+01 -9.4411659031998312e+01 0 0 0
2602 1 2.2305367186058169e+00 -8.8103523713606080e+01 -9.4411729684818681e+01 0 0 0
2533 1 -2.0748202657444303e+00 -8.7278725064946343e+01 -9.9074470332227918e+01 0 0 0
2534 1 7.7773973425560250e-01 -8.7278725064946229e+01 -9.9074470332228046e+01 0 0 0
4807 1 -6.7960509270399261e-01 -8.4808138768557001e+01 -9.9074540769927381e+01 0 0 0
4808 1 2.1729549072959591e+00 -8.4808138768557043e+01 -9.9074540769927339e+01 0 0 0
4811 1 -6.5074885045045028e-01 -8.6455845097848680e+01 -9.6743141700944449e+01 0 0 0
4812 1 2.2018111495495361e+00 -8.6455845097848652e+01 -9.6743141700944449e+01 0 0 0
4813 1 -2.1080169973054721e+00 -8.3985268892754846e+01 -9.6743223552372825e+01 0 0 0
4814 1 7.4454300269451845e-01 -8.3985268892754803e+01 -9.6743223552372882e+01 0 0 0
4855 1 7.7341833543300953e-01 -8.5632963176464415e+01 -9.4411811838313255e+01 0 0 0
4856 1 -2.0791416645670009e+00 -8.5632963176464429e+01 -9.4411811838313255e+01 0 0 0
2549 1 -3.2323773179281468e-01 -1.1116280266189796e+02 -8.9748566573279760e+01 0 0 0
2550 1 2.5293222682071876e+00 -1.1116280266189794e+02 -8.9748566573279760e+01 0 0 0
2552 1 1.0458340169701816e+00 -1.0704481908819952e+02 -9.2079997498708579e+01 0 0 0
2553 1 -1.8067259830298106e+00 -1.0704481908819950e+02 -9.2079997498708565e+01 0 0 0
2554 1 2.5023701214532523e+00 -1.0951532097454870e+02 -9.2079982286922601e+01 0 0 0
2555 1 -3.5018987854673683e-01 -1.0951532097454870e+02 -9.2079982286922601e+01 0 0 0
2557 1 -1.7795927140686618e+00 -1.0869231883577071e+02 -8.9748577465017320e+01 0 0 0
2558 1 1.0729672859313302e+00 -1.0869231883577072e+02 -8.9748577465017320e+01 0 0 0
2559 1 -3.8341665639503514e-01 -1.0622183139746144e+02 -8.9748596487018943e+01 0 0 0
2560 1 2.4691433436049608e+00 -1.0622183139746144e+02 -8.9748596487018929e+01 0 0 0
2561 1 2.4418270394200108e+00 -1.0457431342149567e+02 -9.2080020043507034e+01 0 0 0
2562 1 -4.1073296057998426e-01 -1.0457431342149569e+02 -9.2080020043507005e+01 0 0 0
2563 1 9.8522350021063332e-01 -1.0210380360067160e+02 -9.2080049397313800e+01 0 0 0
2564 1 -1.8673364997893780e+00 -1.0210380360067160e+02 -9.2080049397313800e+01 0 0 0
2570 1 -1.8398359640064108e+00 -1.0375133990403403e+02 -8.9748622903866959e+01 0 0 0
2571 1 1.0127240359935905e+00 -1.0375133990403401e+02 -8.9748622903866973e+01 0 0 0
2568 1 -4.4373766764429412e-01 -1.0128084385507407e+02 -8.9748656953704298e+01 0 0 0
2569 1 2.4088223323557050e+00 -1.0128084385507407e+02 -8.9748656953704284e+01 0 0 0
2575 1 2.3811372296355131e+00 -9.9633289168008233e+01 -9.2080085523175114e+01 0 0 0
2576 1 -4.7142277036448454e-01 -9.9633289168008233e+01 -9.2080085523175100e+01 0 0 0
2579 1 -1.9002487801633778e+00 -9.8810342638451061e+01 -8.9748698495314329e+01 0 0 0
2580 1 9.5231121983662226e-01 -9.8810342638451061e+01 -8.9748698495314329e+01 0 0 0
2573 1 9.2444170025151040e-01 -9.7162769644501580e+01 -9.2080128330461179e+01 0 0 0
2574 1 -1.9281182997484876e+00 -9.7162769644501580e+01 -9.2080128330461164e+01 0 0 0
2581 1 2.3483035836784518e+00 -9.6339835606256813e+01 -8.9748747331444378e+01 0 0 0
2582 1 -5.0425641632154472e-01 -9.6339835606256827e+01 -8.9748747331444378e+01 0 0 0
2587 1 2.3202501823812063e+00 -9.4692244530248232e+01 -9.2080178136352203e+01 0 0 0
2588 1 -5.3230981761879625e-01 -9.4692244530248232e+01 -9.2080178136352203e+01 0 0 0
2593 1 -1.9608872533449382e+00 -9.3869322186908036e+01 -8.9748804590348428e+01 0 0 0
2594 1 8.9167274665505647e-01 -9.3869322186908036e+01 -8.9748804590348442e+01 0 0 0
2585 1 8.6343679154535236e-01 -9.2221713388126702e+01 -9.2080236787301516e+01 0 0 0
2586 1 -1.9891232084546491e+00 -9.2221713388126702e+01 -9.2080236787301516e+01 0 0 0
2597 1 2.2591158812982020e+00 -8.9751175785485330e+01 -9.2080306133802480e+01 0 0 0
2598 1 -5.9344411870180236e-01 -8.9751175785485330e+01 -9.2080306133802466e+01 0 0 0
2603 1 2.2875324394030279e+00 -9.1398801850423681e+01 -8.9748872232542922e+01 0 0 0
2604 1 8.3075632317435966e-01 -8.8928274111559503e+01 -8.9748951841377817e+01 0 0 0
2605 1 -5.6502756059696690e-01 -9.1398801850423666e+01 -8.9748872232542908e+01 0 0 0
2606 1 -2.0218036768256424e+00 -8.8928274111559503e+01 -8.9748951841377803e+01 0 0 0
2595 1 8.0216172025473498e-01 -8.7280631327225393e+01 -9.2080387469296198e+01 0 0 0
2596 1 -2.0503982797452651e+00 -8.7280631327225379e+01 -9.2080387469296198e+01 0 0 0
4853 1 2.1976892396488106e+00 -8.4810079634614183e+01 -9.2080481557398414e+01 0 0 0
4854 1 -6.5487076035118019e-01 -8.4810079634614183e+01 -9.2080481557398457e+01 0 0 0
4861 1 -6.2610192443297430e-01 -8.6457738552675423e+01 -8.9749044756755140e+01 0 0 0
4862 1 2.2264580755670145e+00 -8.6457738552675409e+01 -8.9749044756755126e+01 0 0 0
4863 1 -2.0830477990159944e+00 -8.3987194827521435e+01 -8.9749151647698213e+01 0 0 0
4864 1 7.6951220098400452e-01 -8.3987194827521449e+01 -8.9749151647698213e+01 0 0 0
2609 1 -1.7527069853092638e+00 -1.1033979190209278e+02 -8.7417153084280741e+01 0 0 0
2610 1 1.0998530146907324e+00 -1.1033979190209280e+02 -8.7417153084280741e+01 0 0 0
2615 1 -3.5634161346759041e-01 -1.0786932200829497e+02 -8.7417167635713696e+01 0 0 0
2616 1 2.4962183865324152e+00 -1.0786932200829497e+02 -8.7417167635713710e+01 0 0 0
2617 1 -3.2952123839280884e-01 -1.0951678691331711e+02 -8.5085735057660912e+01 0 0 0
2618 1 2.5230387616071863e+00 -1.0951678691331711e+02 -8.5085735057660884e+01 0 0 0
2619 1 -1.7855504659110517e+00 -1.0704633036897474e+02 -8.5085752825577984e+01 0 0 0
2620 1 1.0670095340889487e+00 -1.0704633036897474e+02 -8.5085752825577984e+01 0 0 0
2621 1 -1.8125691590750104e+00 -1.0539884833380827e+02 -8.7417190146176381e+01 0 0 0
2622 1 1.0399908409249958e+00 -1.0539884833380829e+02 -8.7417190146176409e+01 0 0 0
2623 1 -4.1627731425869180e-01 -1.0292837037298789e+02 -8.7417220769757151e+01 0 0 0
2624 1 2.4362826857413111e+00 -1.0292837037298790e+02 -8.7417220769757122e+01 0 0 0
2625 1 -1.8451708975958383e+00 -1.0210540449163358e+02 -8.5085814075125867e+01 0 0 0
2626 1 1.0073891024041608e+00 -1.0210540449163358e+02 -8.5085814075125867e+01 0 0 0
2627 1 -3.8905751480802286e-01 -1.0457586974042765e+02 -8.5085778970584201e+01 0 0 0
2628 1 2.4635024851919800e+00 -1.0457586974042765e+02 -8.5085778970584187e+01 0 0 0
2629 1 -1.8725938588751307e+00 -1.0045788751697989e+02 -8.7417259833870730e+01 0 0 0
2630 1 9.7996614112486791e-01 -1.0045788751697987e+02 -8.7417259833870745e+01 0 0 0
2631 1 -4.7640672684123120e-01 -9.7987398950611606e+01 -8.7417307100107180e+01 0 0 0
2632 1 2.3761532731587738e+00 -9.7987398950611635e+01 -8.7417307100107195e+01 0 0 0
2633 1 -4.4877898929505450e-01 -9.9634933957739733e+01 -8.5085858384427937e+01 0 0 0
2634 1 2.4037810107049418e+00 -9.9634933957739719e+01 -8.5085858384427937e+01 0 0 0
2635 1 -1.9050104343844052e+00 -9.7164457280060546e+01 -8.5085911762230609e+01 0 0 0
2636 1 9.4754956561560144e-01 -9.7164457280060546e+01 -8.5085911762230609e+01 0 0 0
2637 1 -1.9328434525639440e+00 -9.5516903831055288e+01 -8.7417362765661267e+01 0 0 0
2638 1 9.1971654743605258e-01 -9.5516903831055288e+01 -8.7417362765661281e+01 0 0 0
2639 1 -5.3679069537991875e-01 -9.3046401532175565e+01 -8.7417428611795899e+01 0 0 0
2640 1 2.3157693046200758e+00 -9.3046401532175565e+01 -8.7417428611795899e+01 0 0 0
2641 1 -5.0875236758031395e-01 -9.4693973658487991e+01 -8.5085975511968670e+01 0 0 0
2642 1 2.3438076324196984e+00 -9.4693973658487977e+01 -8.5085975511968684e+01 0 0 0
2643 1 -1.9651327776318903e+00 -9.2223482097516964e+01 -8.5086050778588373e+01 0 0 0
2644 1 8.8742722236811045e-01 -9.2223482097516964e+01 -8.5086050778588344e+01 0 0 0
2645 1 -1.9933756141143879e+00 -9.0575891409017814e+01 -8.7417506099007284e+01 0 0 0
2646 1 8.5918438588561907e-01 -9.0575891409017771e+01 -8.7417506099007284e+01 0 0 0
2647 1 -5.9748507486123015e-01 -8.8105372907951647e+01 -8.7417596886612372e+01 0 0 0
2648 1 2.2550749251387754e+00 -8.8105372907951647e+01 -8.7417596886612387e+01 0 0 0
2649 1 -5.6903954898608899e-01 -8.9752981768601302e+01 -8.5086139031191792e+01 0 0 0
2650 1 2.2835204510139118e+00 -8.9752981768601316e+01 -8.5086139031191792e+01 0 0 0
2651 1 -2.0256001028537347e+00 -8.7282472080981918e+01 -8.5086241949246741e+01 0 0 0
2652 1 8.2695989714627638e-01 -8.7282472080981918e+01 -8.5086241949246727e+01 0 0 0
4921 1 -2.0542459241092250e+00 -8.5634845589615125e+01 -8.7417702290311198e+01 0 0 0
4922 1 7.9831407589077752e-01 -8.5634845589615111e+01 -8.7417702290311198e+01 0 0 0
4925 1 -6.2970175004630002e-01 -8.4811952543073062e+01 -8.5086360730031927e+01 0 0 0
4926 1 2.2228582499536986e+00 -8.4811952543073062e+01 -8.5086360730031927e+01 0 0 0
2655 1 -3.0296979635910748e-01 -1.1116422721144639e+02 -8.2754300409765435e+01 0 0 0
2656 1 2.5495902036409004e+00 -1.1116422721144639e+02 -8.2754300409765449e+01 0 0 0
2659 1 -1.7323179077676618e+00 -1.1034122020560844e+02 -8.0422870573985207e+01 0 0 0
2660 1 1.1202420922323373e+00 -1.1034122020560845e+02 -8.0422870573985193e+01 0 0 0
2661 1 -1.7587948232081732e+00 -1.0869378725166595e+02 -8.2754312515977290e+01 0 0 0
2662 1 1.0937651767918344e+00 -1.0869378725166597e+02 -8.2754312515977290e+01 0 0 0
2665 1 -3.3540199449022789e-01 -1.0787079266262150e+02 -8.0422885561206357e+01 0 0 0
2666 1 2.5171580055097635e+00 -1.0787079266262150e+02 -8.0422885561206328e+01 0 0 0
2663 1 -3.6209348602949848e-01 -1.0622334340844189e+02 -8.2754333386811993e+01 0 0 0
2664 1 2.4904665139704991e+00 -1.0622334340844189e+02 -8.2754333386811993e+01 0 0 0
2669 1 -1.8179955543108872e+00 -1.0375289515497478e+02 -8.2754363430528272e+01 0 0 0
2670 1 1.0345644456891088e+00 -1.0375289515497479e+02 -8.2754363430528286e+01 0 0 0